2
Lattice="0.0 2.734772 2.734772 2.734772 0.0 2.734772 2.734772 2.734772 0.0" Properties=species:S:1:pos:R:3:forces:I:3:magmoms:I:1 material_id=mp-149 formula=Si2 task_id=mp-655585 calc_id=0 ionic_step=0 frame_id=mp-655585-0-0 energy=-10.85063528 mp2020_corrected_energy=-10.85063528 stress="8.083068265927851e-05 -0.0 -0.0 -0.0 8.083068265927851e-05 -0.0 -0.0 -0.0 8.083068265927851e-05" pbc="T T T"
Si       0.00000000       0.00000000       0.00000000        0        0        0        0
Si       1.36738600       1.36738600       1.36738600        0        0        0        0
2
Lattice="3.38143103 0.0 1.95227012 1.12714368 3.18804375 1.95227012 0.0 0.0 3.90454024" Properties=species:S:1:pos:R:3:forces:I:3 material_id=mp-149 formula=Si2 task_id=mp-11721 calc_id=1 ionic_step=1 frame_id=mp-11721-1-1 energy=-10.84103646 mp2020_corrected_energy=-10.84103646 stress="0.015263925201822544 -0.0 -0.0 -0.0 0.015263925201822544 -0.0 -0.0 -0.0 0.015263925201822544" pbc="T T T"
Si       0.00000000       0.00000000       0.00000000        0        0        0
Si       1.12714368       0.79701094       1.95227012        0        0        0
2
Lattice="3.30191217 0.0 1.90635988 1.10063739 3.11307265 1.90635988 0.0 0.0 3.81271976" Properties=species:S:1:pos:R:3:forces:I:3 material_id=mp-149 formula=Si2 task_id=mp-11721 calc_id=1 ionic_step=0 frame_id=mp-11721-1-0 energy=-10.82985865 mp2020_corrected_energy=-10.82985865 stress="-0.02547498674623027 -0.0 -0.0 -0.0 -0.02547498674623027 -0.0 -0.0 -0.0 -0.02547498674623027" pbc="T T T"
Si       0.00000000       0.00000000       0.00000000        0        0        0
Si       1.10063739       0.77826816       1.90635988        0        0        0
2
Lattice="3.36406789 0.0 1.9422455 1.12135596 3.17167362 1.9422455 0.0 0.0 3.884491" Properties=species:S:1:pos:R:3:forces:I:3 material_id=mp-149 formula=Si2 task_id=mp-149 calc_id=1 ionic_step=1 frame_id=mp-149-1-1 energy=-10.84856901 mp2020_corrected_energy=-10.84856901 stress="0.00740660624798951 -0.0 -0.0 -0.0 0.00740660624798951 -0.0 -0.0 -0.0 0.00740660624798951" pbc="T T T"
Si       3.92474587       2.77521442       6.79785925        0        0        0
Si       0.56067798       0.39645920       0.97112275        0        0        0
2
Lattice="3.32548851 0.0 1.91997169 1.10849617 3.13530064 1.91997169 0.0 0.0 3.83994338" Properties=species:S:1:pos:R:3:forces:I:3 material_id=mp-149 formula=Si2 task_id=mp-149 calc_id=1 ionic_step=0 frame_id=mp-149-1-0 energy=-10.84561065 mp2020_corrected_energy=-10.84561065 stress="-0.01201266271779067 -0.0 -0.0 -0.0 -0.01201266271779067 -0.0 -0.0 -0.0 -0.01201266271779067" pbc="T T T"
Si       3.87973660       2.74338806       6.71990091        0        0        0
Si       0.55424809       0.39191258       0.95998584        0        0        0
2
Lattice="-2.93096213 -2.93096213 0.0 -2.93096213 0.0 -2.93096213 0.0 -2.93096213 -2.93096213" Properties=species:S:1:pos:R:3:forces:I:3 material_id=mp-149 formula=Si2 task_id=mp-1057366 calc_id=1 ionic_step=1 frame_id=mp-1057366-1-1 energy=-10.42359831 mp2020_corrected_energy=-10.42359831 stress="0.07267060770857056 -0.0 -0.0 -0.0 0.07267060770857056 -0.0 -0.0 -0.0 0.07267060770857056" pbc="T T T"
Si      -4.39644319      -4.39644319      -4.39644319        0        0        0
Si       0.00000000       0.00000000       0.00000000        0        0        0
2
Lattice="-2.540341 -2.540341 0.0 -2.540341 0.0 -2.540341 0.0 -2.540341 -2.540341" Properties=species:S:1:pos:R:3:forces:I:3 material_id=mp-149 formula=Si2 task_id=mp-1057366 calc_id=1 ionic_step=0 frame_id=mp-1057366-1-0 energy=-10.1869952 mp2020_corrected_energy=-10.1869952 stress="-0.19442703768480804 -0.0 -0.0 -0.0 -0.19442703768480804 -0.0 -0.0 -0.0 -0.19442703768480804" pbc="T T T"
Si      -3.81051150      -3.81051150      -3.81051150        0        0        0
Si       0.00000000       0.00000000       0.00000000        0        0        0
